                         Program Version 3.0.3 - RELEASE   -
|  1> ! rhf sto-3g nori extremescf hcore noautostart bohrs
|  2>
|  3> * xyz 0 1
|  4> O   0.000000000000  -0.143225816552   0.000000000000
|  5> H   1.638036840407   1.136548822547  -0.000000000000
|  6> H  -1.638036840407   1.136548822547  -0.000000000000
|  7> *
|  8>
|  9>                          ****END OF INPUT****

CARTESIAN COORDINATES (ANGSTROEM)
---------------------------------
  O      0.000000   -0.075792    0.000000
  H      0.866812    0.601436   -0.000000
  H     -0.866812    0.601436   -0.000000

 Total Charge           Charge          ....    0
 Multiplicity           Mult            ....    1
 Number of Electrons    NEL             ....   10
 Basis Dimension        Dim             ....    7

ORBITAL ENERGIES
----------------

  NO   OCC          E(Eh)            E(eV)
   0   2.0000     -20.262892      -551.3813
   1   2.0000      -1.209697       -32.9175
   2   2.0000      -0.547965       -14.9109
   3   2.0000      -0.436527       -11.8785
   4   2.0000      -0.387587       -10.5468
   5   0.0000       0.477619        12.9967
   6   0.0000       0.588139        16.0041

MULLIKEN ATOMIC CHARGES
-----------------------
   0 O :   -0.253146
   1 H :    0.126573
   2 H :    0.126573
Sum of atomic charges:   -0.0000000

LOEWDIN ATOMIC CHARGES
----------------------
   0 O :   -0.184234
   1 H :    0.092117
   2 H :    0.092117

  Mayer bond orders larger than 0.1
B(  0-O ,  1-H ) :   0.9752 B(  0-O ,  2-H ) :   0.9752

FINAL SINGLE POINT ENERGY       -74.942079928091

DIPOLE MOMENT
-------------
                                X             Y             Z
Electronic contribution:     -0.00000      -0.52387      -0.00000
Nuclear contribution   :      0.00000       1.12740       0.00000
                        -----------------------------------------
Total Dipole Moment    :     -0.00000       0.60352      -0.00000
                        -----------------------------------------
Magnitude (a.u.)       :      0.60352
Magnitude (Debye)      :      1.53403

                             ****ORCA TERMINATED NORMALLY****
TOTAL RUN TIME: 0 days 0 hours 0 minutes 14 seconds 412 msec
