 Q-Chem 4.3, Q-Chem, Inc., Pleasanton, CA (2015)
 Q-Chem 4.3.0 for Intel X86 EM64T Linux

User input:
--------------------------------------------------------------
$rem
 method hf
 basis sto-3g
 scf_convergence 10
 thresh 14
 scf_guess core
 input_bohr true
 symmetry false
 sym_ignore true
$end

$molecule
 0 1
C  -0.000000000000   0.000000000000   0.000000000000
H   1.183771681898  -1.183771681898  -1.183771681898
H   1.183771681898   1.183771681898   1.183771681898
H  -1.183771681898   1.183771681898  -1.183771681898
H  -1.183771681898  -1.183771681898   1.183771681898
$end
--------------------------------------------------------------

   11     -39.7268503164      6.42E-15 Convergence criterion met
 Total energy in the final basis set = -39.7268503164

                    Orbital Energies (a.u.)
 --------------------------------------------------------------

 Alpha MOs
 -- Occupied --
-11.030  -0.911  -0.520  -0.520  -0.520

          Ground-State Mulliken Net Atomic Charges

     Atom                 Charge (a.u.)
  ----------------------------------------
      1 C                    -0.260431
      2 H                     0.065108
      3 H                     0.065108
      4 H                     0.065108
      5 H                     0.065108
  ----------------------------------------
  Sum of atomic charges =    -0.000000

                    Cartesian Multipole Moments
 -----------------------------------------------------------------
    Charge (ESU x 10^10)
                -0.0000
    Dipole Moment (Debye)
         X      -0.0000      Y       0.0000      Z       0.0000
       Tot       0.0000
    Quadrupole Moments (Debye-Ang)
        XX      -7.8409     XY       0.0000     YY      -7.8409
        XZ       0.0000     YZ       0.0000     ZZ      -7.8409

 Total job time:  0.36s(wall), 0.33s(cpu)
        *  Thank you very much for using Q-Chem.  Have a nice day.  *
