 Q-Chem 4.3, Q-Chem, Inc., Pleasanton, CA (2015)
 Q-Chem 4.3.0 for Intel X86 EM64T Linux

User input:
--------------------------------------------------------------
$rem
 method hf
 basis sto-3g
 scf_convergence 10
 thresh 14
 scf_guess core
 input_bohr true
 symmetry false
 sym_ignore true
$end

$molecule
 0 1
O   0.000000000000  -0.143225816552   0.000000000000
H   1.638036840407   1.136548822547  -0.000000000000
H  -1.638036840407   1.136548822547  -0.000000000000
$end
--------------------------------------------------------------

   11     -74.9420799279      5.49E-11 Convergence criterion met
 Total energy in the final basis set = -74.9420799279

                    Orbital Energies (a.u.)
 --------------------------------------------------------------

 Alpha MOs
 -- Occupied --
-20.263  -1.210  -0.548  -0.437  -0.388

          Ground-State Mulliken Net Atomic Charges

     Atom                 Charge (a.u.)
  ----------------------------------------
      1 O                    -0.253146
      2 H                     0.126573
      3 H                     0.126573
  ----------------------------------------
  Sum of atomic charges =    -0.000000

                    Cartesian Multipole Moments
 -----------------------------------------------------------------
    Charge (ESU x 10^10)
                -0.0000
    Dipole Moment (Debye)
         X      -0.0000      Y       1.5340      Z       0.0000
       Tot       1.5340
    Quadrupole Moments (Debye-Ang)
        XX      -4.3168     XY      -0.0000     YY      -5.2054
        XZ      -0.0000     YZ      -0.0000     ZZ      -6.2076

 Total job time:  0.32s(wall), 0.31s(cpu)
        *  Thank you very much for using Q-Chem.  Have a nice day.  *
