 Q-Chem 4.3, Q-Chem, Inc., Pleasanton, CA (2015)
 Q-Chem 4.3.0 for Intel X86 EM64T Linux

User input:
--------------------------------------------------------------
$rem
 method hf
 basis dz
 scf_convergence 10
 thresh 14
 scf_guess core
 input_bohr true
 symmetry false
 sym_ignore true
$end

$molecule
 0 1
O   0.000000000000  -0.143225816552   0.000000000000
H   1.638036840407   1.136548822547  -0.000000000000
H  -1.638036840407   1.136548822547  -0.000000000000
$end
--------------------------------------------------------------

   14     -75.9778789748      7.80E-11 Convergence criterion met
 Total energy in the final basis set = -75.9778789748

                    Orbital Energies (a.u.)
 --------------------------------------------------------------

 Alpha MOs
 -- Occupied --
-20.584  -1.298  -0.644  -0.546  -0.500

          Ground-State Mulliken Net Atomic Charges

     Atom                 Charge (a.u.)
  ----------------------------------------
      1 O                    -0.771302
      2 H                     0.385651
      3 H                     0.385651
  ----------------------------------------
  Sum of atomic charges =    -0.000000

                    Cartesian Multipole Moments
 -----------------------------------------------------------------
    Charge (ESU x 10^10)
                -0.0000
    Dipole Moment (Debye)
         X       0.0000      Y       2.7222      Z      -0.0000
       Tot       2.7222
    Quadrupole Moments (Debye-Ang)
        XX      -3.9715     XY       0.0000     YY      -5.9526
        XZ       0.0000     YZ       0.0000     ZZ      -7.6791

 Total job time:  0.58s(wall), 0.46s(cpu)
        *  Thank you very much for using Q-Chem.  Have a nice day.  *
