 Q-Chem 4.4, Q-Chem, Inc., Pleasanton, CA (2016)
 Q-Chem 4.4.2 for Intel X86 EM64T Linux

User input:
--------------------------------------------------------------
$rem
  method = hf
  basis = sto-3g
  scf_convergence = 10
  thresh = 14
  input_bohr = true
  symmetry = false
  sym_ignore = true
  cis_dynamic_mem = true
  cis_n_roots = 10
  cis_singlets = true
  cis_triplets = false
  rpa = true
$end

$molecule
0 1
O   0.000000000000  -0.143225816552   0.000000000000
H   1.638036840407   1.136548822547  -0.000000000000
H  -1.638036840407   1.136548822547  -0.000000000000
$end
--------------------------------------------------------------

    9     -74.9420799279      2.23E-13 Convergence criterion met
 Total energy in the final basis set = -74.9420799279

               CIS Excitation Energies
 ---------------------------------------------------

 Excited state   1: excitation energy (eV) =    9.6998
    Total energy for state   1:    -74.585618169722
    Multiplicity: Singlet
    Trans. Mom.: -0.0000 X   0.0000 Y   0.0993 Z
    Strength   :     0.0023412740
    D(  5) --> V(  1) amplitude =  1.0000

 Excited state   2: excitation energy (eV) =   11.3219
    Total energy for state   2:    -74.526008189776
    Multiplicity: Singlet
    Trans. Mom.:  0.0000 X  -0.0000 Y   0.0000 Z
    Strength   :     0.0000000000
    D(  5) --> V(  2) amplitude =  1.0000

 Excited state   3: excitation energy (eV) =   13.7588
    Total energy for state   3:    -74.436451640345
    Multiplicity: Singlet
    Trans. Mom.:  0.0000 X  -0.4389 Y   0.0000 Z
    Strength   :     0.0649262732
    D(  3) --> V(  2) amplitude = -0.3448
    D(  4) --> V(  1) amplitude =  0.9365

 Excited state   4: excitation energy (eV) =   15.1075
    Total energy for state   4:    -74.386888042058
    Multiplicity: Singlet
    Trans. Mom.: -0.2044 X  -0.0000 Y   0.0000 Z
    Strength   :     0.0154673554
    D(  3) --> V(  1) amplitude = -0.5527
    D(  4) --> V(  2) amplitude =  0.8334

 Excited state   5: excitation energy (eV) =   17.8321
    Total energy for state   5:    -74.286761479560
    Multiplicity: Singlet
    Trans. Mom.: -1.6928 X   0.0000 Y  -0.0000 Z
    Strength   :     1.2519369107
    D(  3) --> V(  1) amplitude =  0.8325
    D(  4) --> V(  2) amplitude =  0.5521

 Excited state   6: excitation energy (eV) =   24.7657
    Total energy for state   6:    -74.031958238988
    Multiplicity: Singlet
    Trans. Mom.: -0.0000 X  -1.1828 Y   0.0000 Z
    Strength   :     0.8488068062
    D(  3) --> V(  2) amplitude =  0.9255
    D(  4) --> V(  1) amplitude =  0.3277

 Excited state   7: excitation energy (eV) =   35.3962
    Total energy for state   7:    -73.641294733361
    Multiplicity: Singlet
    Trans. Mom.:  0.0000 X  -0.3264 Y  -0.0000 Z
    Strength   :     0.0923718459
    D(  2) --> V(  1) amplitude =  0.9797

 Excited state   8: excitation energy (eV) =   36.0758
    Total energy for state   8:    -73.616317862986
    Multiplicity: Singlet
    Trans. Mom.: -0.0327 X  -0.0000 Y   0.0000 Z
    Strength   :     0.0009454595
    D(  2) --> V(  2) amplitude =  0.9989

 Excited state   9: excitation energy (eV) =  544.5265
    Total energy for state   9:    -54.931100507677
    Multiplicity: Singlet
    Trans. Mom.: -0.0000 X   0.0656 Y  -0.0000 Z
    Strength   :     0.0573552111
    D(  1) --> V(  1) amplitude =  1.0000

 Excited state  10: excitation energy (eV) =  545.6027
    Total energy for state  10:    -54.891547983630
    Multiplicity: Singlet
    Trans. Mom.:  0.0788 X   0.0000 Y   0.0000 Z
    Strength   :     0.0829225923
    D(  1) --> V(  2) amplitude =  1.0000

 ---------------------------------------------------

                    Orbital Energies (a.u.)
 --------------------------------------------------------------

 Alpha MOs
 -- Occupied --
-20.263  -1.210  -0.548  -0.437  -0.388

          Ground-State Mulliken Net Atomic Charges

     Atom                 Charge (a.u.)
  ----------------------------------------
      1 O                    -0.253146
      2 H                     0.126573
      3 H                     0.126573
  ----------------------------------------
  Sum of atomic charges =     0.000000

                    Cartesian Multipole Moments
 -----------------------------------------------------------------
    Charge (ESU x 10^10)
                 0.0000
    Dipole Moment (Debye)
         X      -0.0000      Y       1.5340      Z      -0.0000
       Tot       1.5340
    Quadrupole Moments (Debye-Ang)
        XX      -4.3168     XY      -0.0000     YY      -5.2054
        XZ       0.0000     YZ      -0.0000     ZZ      -6.2076

 Total job time:  0.21s(wall), 0.21s(cpu)
        *  Thank you very much for using Q-Chem.  Have a nice day.  *
